TITLE="Ideal line"
VARIABLES= "Z" "V (m/s)"
ZONE T="Ideal line"
-0.00050	-5.29396E-21
-0.00045	2.375E-06
-0.00040	0.0000045
-0.00035	0.000006375
-0.00030	0.000008
-0.00025	0.000009375
-0.00020	0.0000105
-0.00015	0.000011375
-0.00010	0.000012
-0.00005	0.000012375
0.00000	0.0000125
0.00005	0.000012375
0.00010	0.000012
0.00015	0.000011375
0.00020	0.0000105
0.00025	0.000009375
0.00030	0.000008
0.00035	0.000006375
0.00040	0.0000045
0.00045	2.375E-06
0.00050	-5.29396E-21

ZONE T="t=0.02s" VARSHARELIST=([1]=1)
-3.53388E-21
6.8117E-07
1.16144E-06
1.48699E-06
1.69863E-06
1.8303E-06
1.9085E-06
1.95267E-06
1.97611E-06
1.98719E-06
1.99041E-06
1.98719E-06
1.97611E-06
1.95267E-06
1.9085E-06
1.8303E-06
1.69863E-06
1.48699E-06
1.16144E-06
6.8117E-07
-3.53388E-21

ZONE T="t=0.1s" VARSHARELIST=([1]=1)
-4.52082E-21
1.62281E-06
3.01414E-06
4.19208E-06
5.17377E-06
5.97507E-06
6.6101E-06
7.09091E-06
7.42721E-06
7.6261E-06
7.69191E-06
7.6261E-06
7.42721E-06
7.09091E-06
6.6101E-06
5.97507E-06
5.17377E-06
4.19208E-06
3.01414E-06
1.62281E-06
-4.52082E-21

ZONE T="t=0.2s" VARSHARELIST=([1]=1)
-5.00582E-21
2.09466E-06
3.94623E-06
5.56143E-06
6.94667E-06
8.10784E-06
9.05021E-06
9.77828E-06
1.02957E-05
1.0605E-05
1.0708E-05
1.0605E-05
1.02957E-05
9.77828E-06
9.05021E-06
8.10784E-06
6.94667E-06
5.56143E-06
3.94623E-06
2.09466E-06
-5.00582E-21

ZONE T="t=0.5s" VARSHARELIST=([1]=1)
-5.27904E-21
2.36049E-06
4.47133E-06
6.33288E-06
7.94547E-06
9.30939E-06
1.04249E-05
1.12923E-05
1.19118E-05
1.22834E-05
1.24072E-05
1.22834E-05
1.19118E-05
1.12923E-05
1.04249E-05
9.30939E-06
7.94547E-06
6.33288E-06
4.47133E-06
2.36049E-06
-5.27904E-21
