VARIABLES= "X" "Y" "Z" 
ZONE T="Test Point", I=1, F=POINT
1.0306676908287871e+00   8.4999999999999998e-01   -9.1272365044997340e-03  
ZONE T="Cell 1853203"
ZONETYPE=FEPOLYHEDRON
NODES=8 ELEMENTS=1 FACES=12
TotalNumFaceNodes=36
NumConnectedBoundaryFaces=0 TotalNumBoundaryConnections=0
0.0000000000000000e+00   0.0000000000000000e+00   0.0000000000000000e+00   0.0000000000000000e+00   0.0000000000000000e+00   0.0000000000000000e+00   0.0000000000000000e+00   0.0000000000000000e+00   
0.0000000000000000e+00   0.0000000000000000e+00   0.0000000000000000e+00   0.0000000000000000e+00   0.0000000000000000e+00   0.0000000000000000e+00   0.0000000000000000e+00   0.0000000000000000e+00   
-7.1878709771082440e-03  -6.6390629403929313e-03  -6.6007839180363308e-03  -7.1468984932995640e-03  -7.8270310278716823e-03  -8.4628875914096319e-03  -7.7819224181781147e-03  -8.4146830359061887e-03  
3    3    3    3    3    3    3    3    3    3    3    3    
1                        2                        3                        1                        3                        4                        5                        2                        1                        5                        1                        6                        6                        5                        7                        6                        7                        8                        7                        3                        4                        7                        4                        8                        8                        4                        1                        8                        1                        6                        7                        3                        2                        7                        2                        5                        
1                        1                        1                        1                        1                        1                        1                        1                        1                        1                        1                        1                        
0                        0                        0                        0                        0                        0                        0                        0                        0                        0                        0                        0                        

ZONE T="Cell 2185031"
ZONETYPE=FEPOLYHEDRON
NODES=8 ELEMENTS=1 FACES=12
TotalNumFaceNodes=36
NumConnectedBoundaryFaces=0 TotalNumBoundaryConnections=0
0.0000000000000000e+00   0.0000000000000000e+00   0.0000000000000000e+00   0.0000000000000000e+00   0.0000000000000000e+00   0.0000000000000000e+00   0.0000000000000000e+00   0.0000000000000000e+00   
0.0000000000000000e+00   0.0000000000000000e+00   0.0000000000000000e+00   0.0000000000000000e+00   0.0000000000000000e+00   0.0000000000000000e+00   0.0000000000000000e+00   0.0000000000000000e+00   
-7.2055636839421216e-03  -7.2096767522560204e-03  -7.3727261181970984e-03  -7.3679881440822936e-03  -7.6399124224752497e-03  -7.8123771142263425e-03  -7.6407691045403672e-03  -7.8126137136311068e-03  
3    3    3    3    3    3    3    3    3    3    3    3    
1                        2                        3                        1                        3                        4                        3                        2                        5                        3                        5                        6                        2                        1                        7                        2                        7                        5                        8                        4                        1                        8                        1                        7                        3                        4                        8                        3                        8                        6                        7                        5                        6                        7                        6                        8                        
1                        1                        1                        1                        1                        1                        1                        1                        1                        1                        1                        1                        
0                        0                        0                        0                        0                        0                        0                        0                        0                        0                        0                        0                        

ZONE T="Cell 1864055"
ZONETYPE=FEPOLYHEDRON
NODES=8 ELEMENTS=1 FACES=12
TotalNumFaceNodes=36
NumConnectedBoundaryFaces=0 TotalNumBoundaryConnections=0
0.0000000000000000e+00   0.0000000000000000e+00   0.0000000000000000e+00   0.0000000000000000e+00   0.0000000000000000e+00   0.0000000000000000e+00   0.0000000000000000e+00   0.0000000000000000e+00   
0.0000000000000000e+00   0.0000000000000000e+00   0.0000000000000000e+00   0.0000000000000000e+00   0.0000000000000000e+00   0.0000000000000000e+00   0.0000000000000000e+00   0.0000000000000000e+00   
-7.3236718578540520e-03  -7.5972107685348947e-03  -7.6164154900518364e-03  -7.3294837011456480e-03  -7.6737849148179578e-03  -7.7010965335346749e-03  -7.4165509817914572e-03  -7.4027279734111507e-03  
3    3    3    3    3    3    3    3    3    3    3    3    
1                        2                        3                        1                        3                        4                        3                        2                        5                        3                        5                        6                        7                        4                        1                        7                        1                        8                        3                        4                        7                        3                        7                        6                        1                        2                        5                        1                        5                        8                        8                        5                        6                        8                        6                        7                        
1                        1                        1                        1                        1                        1                        1                        1                        1                        1                        1                        1                        
0                        0                        0                        0                        0                        0                        0                        0                        0                        0                        0                        0                        

ZONE T="Cell 1566799"
ZONETYPE=FEPOLYHEDRON
NODES=8 ELEMENTS=1 FACES=12
TotalNumFaceNodes=36
NumConnectedBoundaryFaces=0 TotalNumBoundaryConnections=0
0.0000000000000000e+00   0.0000000000000000e+00   0.0000000000000000e+00   0.0000000000000000e+00   0.0000000000000000e+00   0.0000000000000000e+00   0.0000000000000000e+00   0.0000000000000000e+00   
0.0000000000000000e+00   0.0000000000000000e+00   0.0000000000000000e+00   0.0000000000000000e+00   0.0000000000000000e+00   0.0000000000000000e+00   0.0000000000000000e+00   0.0000000000000000e+00   
-7.9374439196211143e-03  -7.1067049445915371e-03  -7.0597659082111104e-03  -7.8850691759660089e-03  -7.0807351144974015e-03  -7.1277139870632427e-03  -7.9584623067116503e-03  -7.9060461141006264e-03  
3    3    3    3    3    3    3    3    3    3    3    3    
1                        2                        3                        1                        3                        4                        5                        3                        2                        5                        2                        6                        2                        1                        7                        2                        7                        6                        8                        4                        1                        8                        1                        7                        3                        4                        8                        3                        8                        5                        7                        6                        5                        7                        5                        8                        
1                        1                        1                        1                        1                        1                        1                        1                        1                        1                        1                        1                        
0                        0                        0                        0                        0                        0                        0                        0                        0                        0                        0                        0                        

ZONE T="Cell 1409188"
ZONETYPE=FEPOLYHEDRON
NODES=8 ELEMENTS=1 FACES=12
TotalNumFaceNodes=36
NumConnectedBoundaryFaces=0 TotalNumBoundaryConnections=0
0.0000000000000000e+00   0.0000000000000000e+00   0.0000000000000000e+00   0.0000000000000000e+00   0.0000000000000000e+00   0.0000000000000000e+00   0.0000000000000000e+00   0.0000000000000000e+00   
0.0000000000000000e+00   0.0000000000000000e+00   0.0000000000000000e+00   0.0000000000000000e+00   0.0000000000000000e+00   0.0000000000000000e+00   0.0000000000000000e+00   0.0000000000000000e+00   
-7.1197758696716846e-03  -7.5355287637387854e-03  -7.9000924808702386e-03  -7.4710806254015419e-03  -7.9021192521600975e-03  -7.5374872934650394e-03  -7.1216461201753390e-03  -7.4730259271581960e-03  
3    3    3    3    3    3    3    3    3    3    3    3    
1                        2                        3                        1                        3                        4                        5                        3                        2                        5                        2                        6                        2                        1                        7                        2                        7                        6                        8                        4                        1                        8                        1                        7                        3                        4                        8                        3                        8                        5                        7                        6                        5                        7                        5                        8                        
1                        1                        1                        1                        1                        1                        1                        1                        1                        1                        1                        1                        
0                        0                        0                        0                        0                        0                        0                        0                        0                        0                        0                        0                        

ZONE T="Cell 279980"
ZONETYPE=FEPOLYHEDRON
NODES=4 ELEMENTS=1 FACES=4
TotalNumFaceNodes=12
NumConnectedBoundaryFaces=0 TotalNumBoundaryConnections=0
0.0000000000000000e+00   0.0000000000000000e+00   0.0000000000000000e+00   0.0000000000000000e+00   
0.0000000000000000e+00   0.0000000000000000e+00   0.0000000000000000e+00   0.0000000000000000e+00   
1.3931118701228604e-04   -2.8634867279368407e-03  -1.8094332934608839e-02  -1.5690085326152264e-02  
3    3    3    3    
1                        2                        3                        3                        4                        1                        4                        3                        2                        4                        1                        2                        
1                        1                        1                        1                        
0                        0                        0                        0                        

ZONE T="Cell 1277670"
ZONETYPE=FEPOLYHEDRON
NODES=8 ELEMENTS=1 FACES=12
TotalNumFaceNodes=36
NumConnectedBoundaryFaces=0 TotalNumBoundaryConnections=0
0.0000000000000000e+00   0.0000000000000000e+00   0.0000000000000000e+00   0.0000000000000000e+00   0.0000000000000000e+00   0.0000000000000000e+00   0.0000000000000000e+00   0.0000000000000000e+00   
0.0000000000000000e+00   0.0000000000000000e+00   0.0000000000000000e+00   0.0000000000000000e+00   0.0000000000000000e+00   0.0000000000000000e+00   0.0000000000000000e+00   0.0000000000000000e+00   
-9.2020399307161417e-03  -9.0072239263782553e-03  -9.0502827304685118e-03  -9.2461557954630208e-03  -9.0085601753168640e-03  -9.0516189562849948e-03  -9.2474953713412768e-03  -9.2033795213219971e-03  
3    3    3    3    3    3    3    3    3    3    3    3    
1                        2                        3                        1                        3                        4                        3                        2                        5                        3                        5                        6                        7                        4                        3                        7                        3                        6                        7                        4                        1                        7                        1                        8                        1                        2                        5                        1                        5                        8                        8                        5                        6                        8                        6                        7                        
1                        1                        1                        1                        1                        1                        1                        1                        1                        1                        1                        1                        
0                        0                        0                        0                        0                        0                        0                        0                        0                        0                        0                        0                        

ZONE T="Cell 1384855"
ZONETYPE=FEPOLYHEDRON
NODES=8 ELEMENTS=1 FACES=12
TotalNumFaceNodes=36
NumConnectedBoundaryFaces=0 TotalNumBoundaryConnections=0
0.0000000000000000e+00   0.0000000000000000e+00   0.0000000000000000e+00   0.0000000000000000e+00   0.0000000000000000e+00   0.0000000000000000e+00   0.0000000000000000e+00   0.0000000000000000e+00   -0.0000000000000000e+00   0.0000000000000000e+00   0.0000000000000000e+00   0.0000000000000000e+00   3    3    3    3    
1                        2                        3                        4                        1                        3                        3                        2                        4                        1                        2                        4     3    3    3    3    1                        1               1                        2                        3         0                        0                        0                        0                        

ZONE T="Cell 1503395"
ZONETYPE=FEPOLYHEDRON
NODES=8 ELEMENTS=1 FACES=12
TotalNumFaceNodes=36
NumConnectedBoundaryFaces=0 TotalNumBoundaryConnections=0
0.0000000000000000e+00   0.0000000000000000e+00   0.0000000000000000e+00   0.0000000000000000e+00   0.0000000000000000e+00   0.0000000000000000e+00   0.0000000000000000e+00   0.0000000000000000e+00   
0.0000000000000000e+00   0.0000000000000000e+00   0.0000000000000000e+00   0.0000000000000000e+00   0.0000000000000000e+00   0.0000000000000000e+00   0.0000000000000000e+00   0.0000000000000000e+00   
-7.7517492719235337e-03  -7.7459704237962425e-03  -7.2741659444813065e-03  -7.2796753452917017e-03  -7.2637869477273475e-03  -7.2690480163462830e-03  -7.7404665263316871e-03  -7.7349429764400103e-03  
3    3    3    3    3    3    3    3    3    3    3    3    
1                        2                        3                        1                        3                        4                        3                        5                        6                        3                        6                        4                        7                        8                        5                        7                        5                        6                        2                        8                        7                        2                        7                        1                        6                        4                        1                        6                        1                        7                        5                        3                        2                        5                        2                        8                        
1                        1                        1                        1                        1                        1                        1                        1                        1                        1                        1                        1                        
0                        0                        0                        0                        0                        0                        0                        0                        0                        0                        0                        0                        

ZONE T="Cell 1271598"
ZONETYPE=FEPOLYHEDRON
NODES=8 ELEMENTS=1 FACES=12
TotalNumFaceNodes=36
NumConnectedBoundaryFaces=0 TotalNumBoundaryConnections=0
0.0000000000000000e+00   0.0000000000000000e+00   0.0000000000000000e+00   0.0000000000000000e+00   0.0000000000000000e+00   0.0000000000000000e+00   0.0000000000000000e+00   0.0000000000000000e+00   
0.0000000000000000e+00   0.0000000000000000e+00   0.0000000000000000e+00   0.0000000000000000e+00   0.0000000000000000e+00   0.0000000000000000e+00   0.0000000000000000e+00   0.0000000000000000e+00   
-8.0939150602935567e-03  -6.9707304171272490e-03  -6.9233719192609887e-03  -8.0384414916257838e-03  -6.9250557308125609e-03  -6.9724154529657379e-03  -8.0956003000900896e-03  -8.0401255099442469e-03  
3    3    3    3    3    3    3    3    3    3    3    3    
1                        2                        3                        1                        3                        4                        5                        3                        2                        5                        2                        6                        2                        1                        7                        2                        7                        6                        8                        4                        1                        8                        1                        7                        3                        4                        8                        3                        8                        5                        7                        6                        5                        7                        5                        8                        
1                        1                        1                        1                        1                        1                        1                        1                        1                        1                        1                        1                        
0                        0                        0                        0                        0                        0                        0                        0                        0                        0                        0                        0                        

ZONE T="Cell 1180902"
ZONETYPE=FEPOLYHEDRON
NODES=8 ELEMENTS=1 FACES=12
TotalNumFaceNodes=36
NumConnectedBoundaryFaces=0 TotalNumBoundaryConnections=0
0.0000000000000000e+00   0.0000000000000000e+00   0.0000000000000000e+00   0.0000000000000000e+00   0.0000000000000000e+00   0.0000000000000000e+00   0.0000000000000000e+00   0.0000000000000000e+00   
0.0000000000000000e+00   0.0000000000000000e+00   0.0000000000000000e+00   0.0000000000000000e+00   0.0000000000000000e+00   0.0000000000000000e+00   0.0000000000000000e+00   0.0000000000000000e+00   
-7.2648078522811275e-03  -7.2784443050776405e-03  -7.7508957042774357e-03  -7.7363675551120423e-03  -7.7514468832168629e-03  -7.2789713667207219e-03  -7.2653328062537124e-03  -7.7369165860615898e-03  
3    3    3    3    3    3    3    3    3    3    3    3    
1                        2                        3                        1                        3                        4                        5                        3                        2                        5                        2                        6                        2                        1                        7                        2                        7                        6                        8                        4                        1                        8                        1                        7                        3                        4                        8                        3                        8                        5                        7                        6                        5                        7                        5                        8                        
1                        1                        1                        1                        1                        1                        1                        1                        1                        1                        1                        1                        
0                        0                        0                        0                        0                        0                        0                        0                        0                        0                        0                        0                        

ZONE T="Cell 2141407"
ZONETYPE=FEPOLYHEDRON
NODES=8 ELEMENTS=1 FACES=12
TotalNumFaceNodes=36
NumConnectedBoundaryFaces=0 TotalNumBoundaryConnections=0
0.0000000000000000e+00   0.0000000000000000e+00   0.0000000000000000e+00   0.0000000000000000e+00   0.0000000000000000e+00   0.0000000000000000e+00   0.0000000000000000e+00   0.0000000000000000e+00   
0.0000000000000000e+00   0.0000000000000000e+00   0.0000000000000000e+00   0.0000000000000000e+00   0.0000000000000000e+00   0.0000000000000000e+00   0.0000000000000000e+00   0.0000000000000000e+00   
-7.1279818430523816e-03  -7.2588472149232334e-03  -7.7503782281634782e-03  -7.5892129303554252e-03  -7.9093089430155618e-03  -7.4094890805740474e-03  -7.2744806069453809e-03  -7.7436108074017953e-03  
3    3    3    3    3    3    3    3    3    3    3    3    
1                        2                        3                        1                        3                        4                        5                        3                        2                        5                        2                        6                        2                        1                        7                        2                        7                        6                        8                        4                        1                        8                        1                        7                        3                        4                        8                        3                        8                        5                        7                        6                        5                        7                        5                        8                        
1                        1                        1                        1                        1                        1                        1                        1                        1                        1                        1                        1                        
0                        0                        0                        0                        0                        0                        0                        0                        0                        0                        0                        0                        

ZONE T="Cell 1301064"
ZONETYPE=FEPOLYHEDRON
NODES=8 ELEMENTS=1 FACES=12
TotalNumFaceNodes=36
NumConnectedBoundaryFaces=0 TotalNumBoundaryConnections=0
0.0000000000000000e+00   0.0000000000000000e+00   0.0000000000000000e+00   0.0000000000000000e+00   0.0000000000000000e+00   0.0000000000000000e+00   0.0000000000000000e+00   0.0000000000000000e+00   
0.0000000000000000e+00   0.0000000000000000e+00   0.0000000000000000e+00   0.0000000000000000e+00   0.0000000000000000e+00   0.0000000000000000e+00   0.0000000000000000e+00   0.0000000000000000e+00   
-8.0160799336351767e-03  -7.0495215322623128e-03  -6.9997084666373801e-03  -7.9600494478322022e-03  -7.0018549840256275e-03  -7.0516709844819789e-03  -8.0182287742423843e-03  -7.9621950615372614e-03  
3    3    3    3    3    3    3    3    3    3    3    3    
1                        2                        3                        1                        3                        4                        5                        3                        2                        5                        2                        6                        2                        1                        7                        2                        7                        6                        8                        4                        1                        8                        1                        7                        3                        4                        8                        3                        8                        5                        7                        6                        5                        7                        5                        8                        
1                        1                        1                        1                        1                        1                        1                        1                        1                        1                        1                        1                        
0                        0                        0                        0                        0                        0                        0                        0                        0                        0                        0                        0                        

ZONE T="Cell 1151607"
ZONETYPE=FEPOLYHEDRON
NODES=8 ELEMENTS=1 FACES=12
TotalNumFaceNodes=36
NumConnectedBoundaryFaces=0 TotalNumBoundaryConnections=0
0.0000000000000000e+00   0.0000000000000000e+00   0.0000000000000000e+00   0.0000000000000000e+00   0.0000000000000000e+00   0.0000000000000000e+00   0.0000000000000000e+00   0.0000000000000000e+00   
0.0000000000000000e+00   0.0000000000000000e+00   0.0000000000000000e+00   0.0000000000000000e+00   0.0000000000000000e+00   0.0000000000000000e+00   0.0000000000000000e+00   0.0000000000000000e+00   
-7.7508957042774357e-03  -7.7504543080668051e-03  -7.2780221533107004e-03  -7.2784443050776405e-03  -7.2643857143436840e-03  -7.2648078522811275e-03  -7.7359261502327513e-03  -7.7363675551120423e-03  
3    3    3    3    3    3    3    3    3    3    3    3    
1                        2                        3                        1                        3                        4                        3                        5                        6                        3                        6                        4                        7                        2                        3                        7                        3                        5                        8                        7                        5                        8                        5                        6                        2                        7                        8                        2                        8                        1                        6                        4                        1                        6                        1                        8                        
1                        1                        1                        1                        1                        1                        1                        1                        1                        1                        1                        1                        
0                        0                        0                        0                        0                        0                        0                        0                        0                        0                        0                        0                        

ZONE T="Cell 2030143"
ZONETYPE=FEPOLYHEDRON
NODES=8 ELEMENTS=1 FACES=12