TITLE = "Example: FE-Volume Tetrahedral Data"
VARIABLES = "X", "Y", "Z"
ZONE NODES=4, ELEMENTS=1, ZONETYPE=FETETRAHEDRON
1.040703e+00  0.000000e+00  -6.401385e-03
1.021136e+00  0.000000e+00  -1.025988e-02
1.028373e+00  0.000000e+00  7.571153e-03
1.000000e+10 3.264048e-03  -4.554467e-03
1 2 3 4