TITLE="Couette flow analytical results"
VARIABLES= "Z" "V (m/s)"
ZONE T="Steady State"
0.000000E+00	0.000000E+00
1.694915E-02	1.694915E-05
3.389831E-02	3.389831E-05
5.084746E-02	5.084746E-05
6.779661E-02	6.779661E-05
8.474576E-02	8.474576E-05
1.016949E-01	1.016949E-04
1.186441E-01	1.186441E-04
1.355932E-01	1.355932E-04
1.525424E-01	1.525424E-04
1.694915E-01	1.694915E-04
1.864407E-01	1.864407E-04
2.033898E-01	2.033898E-04
2.203390E-01	2.203390E-04
2.372881E-01	2.372881E-04
2.542373E-01	2.542373E-04
2.711864E-01	2.711864E-04
2.881356E-01	2.881356E-04
3.050847E-01	3.050847E-04
3.220339E-01	3.220339E-04
3.389831E-01	3.389831E-04
3.559322E-01	3.559322E-04
3.728814E-01	3.728814E-04
3.898305E-01	3.898305E-04
4.067797E-01	4.067797E-04
4.237288E-01	4.237288E-04
4.406780E-01	4.406780E-04
4.576271E-01	4.576271E-04
4.745763E-01	4.745763E-04
4.915254E-01	4.915254E-04
5.084746E-01	5.084746E-04
5.254237E-01	5.254237E-04
5.423729E-01	5.423729E-04
5.593220E-01	5.593220E-04
5.762712E-01	5.762712E-04
5.932203E-01	5.932203E-04
6.101695E-01	6.101695E-04
6.271186E-01	6.271186E-04
6.440678E-01	6.440678E-04
6.610169E-01	6.610169E-04
6.779661E-01	6.779661E-04
6.949153E-01	6.949153E-04
7.118644E-01	7.118644E-04
7.288136E-01	7.288136E-04
7.457627E-01	7.457627E-04
7.627119E-01	7.627119E-04
7.796610E-01	7.796610E-04
7.966102E-01	7.966102E-04
8.135593E-01	8.135593E-04
8.305085E-01	8.305085E-04
8.474576E-01	8.474576E-04
8.644068E-01	8.644068E-04
8.813559E-01	8.813559E-04
8.983051E-01	8.983051E-04
9.152542E-01	9.152542E-04
9.322034E-01	9.322034E-04
9.491525E-01	9.491525E-04
9.661017E-01	9.661017E-04
9.830508E-01	9.830508E-04
1.000000E+00	1.000000E-03


ZONE T="t=1s" VARSHARELIST=([1]=1)
-3.899902E-20
2.977853E-15
8.144981E-15
1.915235E-14
4.344624E-14
9.680921E-14
2.125596E-13
4.601400E-13
9.821820E-13
2.067279E-12
4.290600E-12
8.781204E-12
1.772201E-11
3.526962E-11
6.921873E-11
1.339640E-10
2.556826E-10
4.812493E-10
8.933112E-10
1.635337E-09
2.952517E-09
5.257354E-09
9.232972E-09
1.599284E-08
2.732315E-08
4.604349E-08
7.653336E-08
1.254849E-07
2.029573E-07
3.238211E-07
5.096937E-07
7.914694E-07
1.212546E-06
1.832826E-06
2.733535E-06
4.022822E-06
5.842040E-06
8.372440E-06
1.184191E-05
1.653118E-05
2.277885E-05
3.098425E-05
4.160734E-05
5.516458E-05
7.221995E-05
9.337043E-05
1.192257E-04
1.503821E-04
1.873916E-04
2.307278E-04
2.807494E-04
3.376651E-04
4.015028E-04
4.720845E-04
5.490108E-04
6.316581E-04
7.191868E-04
8.105650E-04
9.046031E-04
1.000000E-03

ZONE T="t=5s" VARSHARELIST=([1]=1)
-3.767171E-20
5.787811E-07
1.172513E-06
1.796352E-06
2.465859E-06
3.197207E-06
4.007375E-06
4.914344E-06
5.937287E-06
7.096750E-06
8.414826E-06
9.915319E-06
1.162389E-05
1.356821E-05
1.577805E-05
1.828540E-05
2.112454E-05
2.433206E-05
2.794694E-05
3.201046E-05
3.656621E-05
4.165995E-05
4.733951E-05
5.365460E-05
6.065660E-05
6.839828E-05
7.693346E-05
8.631669E-05
9.660279E-05
1.078464E-04
1.201015E-04
1.334209E-04
1.478555E-04
1.634539E-04
1.802616E-04
1.983204E-04
2.176678E-04
2.383364E-04
2.603531E-04
2.837385E-04
3.085065E-04
3.346636E-04
3.622085E-04
3.911317E-04
4.214149E-04
4.530313E-04
4.859448E-04
5.201105E-04
5.554741E-04
5.919729E-04
6.295351E-04
6.680808E-04
7.075225E-04
7.477652E-04
7.887073E-04
8.302416E-04
8.722558E-04
9.146336E-04
9.572555E-04
1.000000E-03

ZONE T="t=15s" VARSHARELIST=([1]=1)
-1.753793E-20
9.330301E-06
1.868143E-05
2.807416E-05
3.752918E-05
4.706699E-05
5.670794E-05
6.647210E-05
7.637923E-05
8.644876E-05
9.669971E-05
1.071507E-04
1.178197E-04
1.287244E-04
1.398816E-04
1.513078E-04
1.630184E-04
1.750285E-04
1.873522E-04
2.000028E-04
2.129927E-04
2.263337E-04
2.400363E-04
2.541103E-04
2.685644E-04
2.834062E-04
2.986424E-04
3.142787E-04
3.303193E-04
3.467677E-04
3.636260E-04
3.808953E-04
3.985755E-04
4.166651E-04
4.351617E-04
4.540617E-04
4.733601E-04
4.930510E-04
5.131271E-04
5.335800E-04
5.544003E-04
5.755774E-04
5.970996E-04
6.189542E-04
6.411274E-04
6.636044E-04
6.863695E-04
7.094063E-04
7.326972E-04
7.562239E-04
7.799676E-04
8.039086E-04
8.280265E-04
8.523004E-04
8.767092E-04
9.012308E-04
9.258433E-04
9.505241E-04
9.752506E-04
1.000000E-03

ZONE T="t=50s" VARSHARELIST=([1]=1)
-5.609334E-22
1.670548E-05
3.341164E-05
5.011919E-05
6.682880E-05
8.354115E-05
1.002569E-04
1.169768E-04
1.337013E-04
1.504313E-04
1.671672E-04
1.839097E-04
2.006594E-04
2.174168E-04
2.341825E-04
2.509570E-04
2.677408E-04
2.845344E-04
3.013382E-04
3.181526E-04
3.349780E-04
3.518147E-04
3.686631E-04
3.855235E-04
4.023961E-04
4.192811E-04
4.361788E-04
4.530891E-04
4.700124E-04
4.869486E-04
5.038977E-04
5.208598E-04
5.378349E-04
5.548228E-04
5.718235E-04
5.888368E-04
6.058625E-04
6.229004E-04
6.399503E-04
6.570118E-04
6.740848E-04
6.911687E-04
7.082632E-04
7.253679E-04
7.424824E-04
7.596062E-04
7.767388E-04
7.938797E-04
8.110283E-04
8.281841E-04
8.453465E-04
8.625149E-04
8.796886E-04
8.968671E-04
9.140496E-04
9.312356E-04
9.484243E-04
9.656150E-04
9.828072E-04
1.000000E-03
